LAMMPS data file via write_data, version 7 Aug 2019, timestep = 1000976

836 atoms
4 atom types
556 bonds
2 bond types
278 angles
1 angle types

0.0000000000000000e+00 2.0376999999999999e+01 xlo xhi
0.0000000000000000e+00 2.0376999999999999e+01 ylo yhi
0.0000000000000000e+00 2.0376999999999999e+01 zlo zhi

Masses

1 1.008
2 15.999
3 6.941
4 18.998

Pair Coeffs # lj/cut/coul/long

1 0 0
2 0.155425 3.1655
3 0.336734 1.409
4 0.007401 4.022

Bond Coeffs # harmonic

1 517.63 1
2 478.011 2.63

Angle Coeffs # harmonic

1 37.9505 109.47

Atoms # full

736 246 1 4.2380000000000001e-01 3.2062547894994049e+00 7.5144882207879844e+00 8.0594776194056799e+00 0 2 -1
660 220 1 4.2380000000000001e-01 9.6755016112530423e-01 7.1591038173608279e+00 8.0870508167046200e+00 -1 0 0
767 256 2 -8.4760000000000002e-01 3.3253494126574221e+00 6.9964409105765757e+00 2.7570758872489383e+00 1 0 0
459 153 1 4.2380000000000001e-01 9.0189151694580461e-01 3.3662146091726055e+00 4.9984141197048944e+00 0 1 1
457 153 1 4.2380000000000001e-01 1.3855728318971705e+00 4.6513667037361630e+00 4.1146364389367633e+00 0 1 1
373 125 1 4.2380000000000001e-01 5.0192481783300060e+00 5.8084445634287416e+00 5.7469652628067829e+00 0 -1 0
458 153 2 -8.4760000000000002e-01 1.6947795446613858e+00 3.8554650348459445e+00 4.6351475176853452e+00 0 1 1
374 125 2 -8.4760000000000002e-01 5.8815564726610230e+00 6.3130760231927514e+00 5.7890711439593732e+00 0 -1 0
375 125 1 4.2380000000000001e-01 6.2340290882696863e+00 6.4485437569604498e+00 4.8631058380642624e+00 0 -1 0
483 161 1 4.2380000000000001e-01 4.2453649732013554e+00 3.8344422314765190e+00 6.8688106058914302e+00 2 2 -1
768 256 1 4.2380000000000001e-01 2.4351962190370160e+00 6.5625153281114086e+00 2.8961309572343672e+00 1 0 0
766 256 1 4.2380000000000001e-01 3.2454555661408158e+00 7.7032152039113768e+00 2.0541623007084411e+00 1 0 0
545 182 2 -8.4760000000000002e-01 5.1255467056200414e+00 4.8534421996528767e+00 2.4951171197282127e+00 2 -1 0
482 161 2 -8.4760000000000002e-01 3.8186579824783853e+00 4.6705440445484401e+00 6.5240566864760696e+00 2 2 -1
481 161 1 4.2380000000000001e-01 3.0165661627208049e+00 4.4337775643915283e+00 5.9757947070932040e+00 2 2 -1
497 166 2 -8.4760000000000002e-01 6.9197305362111117e-01 5.8574472921534495e+00 3.2505221010837877e+00 1 2 1
737 246 2 -8.4760000000000002e-01 2.6100085806351223e+00 6.7322115789589159e+00 7.8791055620890091e+00 0 2 -1
544 182 1 4.2380000000000001e-01 4.6295552607880994e+00 5.7200349756416564e+00 2.5499756969154590e+00 2 -1 0
546 182 1 4.2380000000000001e-01 4.4769483465010955e+00 4.0942010196316732e+00 2.5487177670466106e+00 2 -1 0
571 191 1 4.2380000000000001e-01 2.9585048588022849e+00 3.2119224848880248e+00 3.8501922912234168e+00 2 1 -1
150 50 1 4.2380000000000001e-01 1.3460990803278807e+00 5.1180217311106402e-01 5.9287370967967963e+00 1 1 0
760 254 1 4.2380000000000001e-01 1.0692842044486219e+00 9.5299186672860348e-01 3.1249039272875150e+00 2 1 0
184 62 1 4.2380000000000001e-01 5.4896689099275893e+00 1.6058678393438324e+00 8.0606169312259510e+00 -2 2 0
738 246 1 4.2380000000000001e-01 3.1309628082120939e+00 6.0162122143519499e+00 7.4143983760967398e+00 0 2 -1
462 154 1 4.2380000000000001e-01 5.1446443729338327e+00 5.4996675071474437e+00 2.6659283489830082e-01 0 1 1
572 191 2 -8.4760000000000002e-01 3.6749775317659279e+00 2.7968018921199711e+00 3.2895303117592070e+00 2 1 -1
573 191 1 4.2380000000000001e-01 3.2593196618684463e+00 2.1831708093467670e+00 2.6181992107080094e+00 2 1 -1
471 157 1 4.2380000000000001e-01 6.1611495280319941e+00 8.4448196721444688e+00 5.9195987821844929e+00 -2 1 0
274 92 1 4.2380000000000001e-01 4.6437544087990403e+00 1.7130253881013791e+00 4.3439800852050041e+00 0 1 0
275 92 2 -8.4760000000000002e-01 5.1303427407273485e+00 1.1143192057143962e+00 4.9802061407353229e+00 0 1 0
185 62 2 -8.4760000000000002e-01 4.6788966138978516e+00 1.3630363248112343e+00 7.5279990160917576e+00 -2 2 0
311 104 2 -8.4760000000000002e-01 4.3967332417874081e+00 8.8310929467208403e+00 1.0724046532627860e+00 1 0 2
312 104 1 4.2380000000000001e-01 5.3295511633776487e+00 8.4860304179083528e+00 9.6856507010257165e-01 1 0 2
450 150 1 4.2380000000000001e-01 2.1068137262998143e+00 2.1373762781052208e+00 1.1165470694937527e+00 0 -1 -1
57 19 1 4.2380000000000001e-01 5.2226624823935941e+00 8.9934523067918715e+00 8.6095511162067613e+00 1 0 0
186 62 1 4.2380000000000001e-01 4.9604937589711007e+00 9.5330008154091894e-01 6.6603461456029924e+00 -2 2 0
806 269 2 -8.4760000000000002e-01 2.0686683707502680e+00 8.0602279901162899e-01 7.7369884677632745e+00 -2 0 1
807 269 1 4.2380000000000001e-01 2.9090578486133247e+00 1.2399205936428535e+00 7.4122143153876081e+00 -2 0 1
56 19 2 -8.4760000000000002e-01 4.2860153460236790e+00 9.2020729536710686e+00 8.3281801675571323e+00 1 0 0
828 276 1 4.2380000000000001e-01 6.5453417841783468e+00 3.7472714069484185e+00 2.3192316915858311e+00 -1 1 1
48 16 1 4.2380000000000001e-01 3.1269582190961009e-01 1.8590290291632467e+00 7.8747143022036514e+00 0 1 1
470 157 2 -8.4760000000000002e-01 6.3573891500743578e+00 9.3559097907199664e+00 5.5571001969473341e+00 -2 1 0
281 94 2 -8.4760000000000002e-01 6.5800033831393341e+00 2.2415652784293183e+00 9.3888501858269819e+00 -2 2 4
241 81 1 4.2380000000000001e-01 7.7258380664680031e+00 8.3031593418113692e-01 1.9656422475850593e-01 0 0 1
469 157 1 4.2380000000000001e-01 5.6056686339953519e+00 9.9745583227387975e+00 5.7855553635183483e+00 -2 1 0
305 102 2 -8.4760000000000002e-01 2.8020347011815745e+00 9.4261103999874400e+00 4.6519924419155858e+00 2 -1 2
486 162 1 4.2380000000000001e-01 9.7971621734174530e+00 9.2013505863321754e+00 9.5964886357420660e+00 0 1 0
55 19 1 4.2380000000000001e-01 3.6893163244820864e+00 9.2030651383367879e+00 9.1306446955499556e+00 1 0 0
68 23 2 -8.4760000000000002e-01 1.9527727501918164e+01 4.5544698601765061e+00 9.3344739617941652e+00 -1 -1 1
69 23 1 4.2380000000000001e-01 1.9851903145615776e+01 3.9179117335341043e+00 8.6346854690585069e+00 -1 -1 1
761 254 2 -8.4760000000000002e-01 1.7291386115918370e+00 9.0035263630097606e-01 2.3753565373974852e+00 2 1 0
306 102 1 4.2380000000000001e-01 2.9858096002178520e+00 8.5064348310388400e+00 4.3049709974028731e+00 2 -1 2
658 220 1 4.2380000000000001e-01 2.0362044586295518e+01 6.0427110910421824e+00 8.7615703349840679e+00 -2 0 0
628 210 1 4.2380000000000001e-01 1.7329409567952322e+01 3.1463532501911806e+00 7.7365867338960626e-01 0 -1 1
310 104 1 4.2380000000000001e-01 4.0685543565538413e+00 9.1746612688550009e+00 1.9248446806558234e-01 1 0 2
780 260 1 4.2380000000000001e-01 6.7071778532561979e-02 8.3032873076207405e+00 5.7340450795505635e+00 0 0 1
485 162 2 -8.4760000000000002e-01 9.0225248653477177e+00 9.8314155160476506e+00 9.5421257360286997e+00 0 1 0
718 240 1 4.2380000000000001e-01 1.4053181088493638e+01 5.7434486721249485e+00 1.5149982167094092e+00 0 0 2
135 45 1 4.2380000000000001e-01 7.3582872037408027e+00 9.6593399416300443e+00 3.6148554410936784e+00 1 3 1
569 190 2 -8.4760000000000002e-01 1.7739434450456461e+01 7.3099662315196658e+00 1.7768606554893943e-01 0 0 3
440 147 2 -8.4760000000000002e-01 1.4911914606237318e+01 9.6386593184794904e+00 1.6943214859619444e+00 -1 0 0
51 17 1 4.2380000000000001e-01 1.4799133850887671e+01 1.0039398359777655e+01 5.4826123865349317e+00 -1 1 0
498 166 1 4.2380000000000001e-01 5.1005025865976861e-01 5.6128366091282560e+00 2.2981200124331345e+00 1 2 1
496 166 1 4.2380000000000001e-01 2.0372966828870190e+01 6.5014674242120876e+00 3.5680333951295413e+00 0 2 1
24 8 1 4.2380000000000001e-01 1.6934338348992277e+01 7.4852225050364156e+00 1.7489818456621866e+00 -1 -1 2
169 57 1 4.2380000000000001e-01 1.8354466169470420e+01 8.4297828013246061e+00 3.5099907021031793e+00 -2 -1 0
142 48 1 4.2380000000000001e-01 1.6307158105422502e+01 1.0140013255286492e+01 8.6467619548965793e+00 0 1 2
659 220 2 -8.4760000000000002e-01 2.0107495935211769e-02 6.9387596085265164e+00 8.3190009394644093e+00 -1 0 0
620 207 2 -8.4760000000000002e-01 1.3057616593228261e+01 3.4770922328168554e+00 1.0131074200125999e+01 -2 -3 1
304 102 1 4.2380000000000001e-01 2.2763945166145869e+00 9.9394639413033499e+00 3.9736335778421172e+00 2 -1 2
392 131 2 -8.4760000000000002e-01 1.6844174847635358e+01 1.8049824457582326e+00 2.0127383423208718e+00 0 0 0
280 94 1 4.2380000000000001e-01 6.0690409869207222e+00 2.7511566169433226e+00 1.0081117600674858e+01 -2 2 4
391 131 1 4.2380000000000001e-01 1.7223944281048787e+01 9.2709181334049140e-01 2.3044286909979461e+00 0 0 0
801 267 1 4.2380000000000001e-01 1.6032018181260355e+01 5.7861475053203355e+00 9.7020785834529306e+00 1 0 1
570 190 1 4.2380000000000001e-01 1.8683504914425480e+01 7.1219328841958021e+00 4.4856355060206660e-01 0 0 3
276 92 1 4.2380000000000001e-01 6.0525888878185290e+00 9.4028592782207310e-01 4.6349891593218775e+00 0 1 0
120 40 1 4.2380000000000001e-01 6.9172158555530432e+00 6.5795026719378686e+00 7.1809434898251245e+00 0 0 -1
827 276 2 -8.4760000000000002e-01 7.4375920219755827e+00 3.3078341414188586e+00 2.2153835893541602e+00 -1 1 1
393 131 1 4.2380000000000001e-01 1.5872292635631652e+01 1.8415176222909764e+00 2.2453543775234550e+00 0 0 0
779 260 2 -8.4760000000000002e-01 4.5929185035694220e-01 9.0295481363358245e+00 6.2985880195421959e+00 0 0 1
141 47 1 4.2380000000000001e-01 1.1743137620202283e+01 2.6650314575569212e-02 5.0871679182516809e+00 -1 -1 -1
783 261 1 4.2380000000000001e-01 1.1207812344246753e+01 1.3998365780029234e+00 8.7111543246462364e-01 2 2 -1
118 40 1 4.2380000000000001e-01 7.0723712960328093e+00 7.1929673886235399e+00 8.6863385660465031e+00 0 0 -1
525 175 1 4.2380000000000001e-01 7.2261137448617463e+00 3.2822347277269648e+00 8.1327599039641871e+00 0 -1 -2
119 40 2 -8.4760000000000002e-01 7.5325587948498045e+00 6.6781729518005575e+00 7.9630031208712202e+00 0 0 -1
731 244 2 -8.4760000000000002e-01 6.5037842445340095e+00 8.5886083908172512e+00 9.6909319066635025e+00 0 1 -1
133 45 1 4.2380000000000001e-01 7.9514107804158281e+00 9.4497205230852757e+00 2.1079077905620829e+00 1 3 1
193 65 1 4.2380000000000001e-01 4.3162801841467715e+00 7.2356572367812788e-02 8.6735869772483927e+00 2 0 0
638 213 2 -8.4760000000000002e-01 1.3877806725938759e+01 6.0770074961839571e+00 9.6455564810266967e+00 -1 0 -1
140 47 2 -8.4760000000000002e-01 1.1760159558198085e+01 6.8712239822315613e-02 4.0881973028554714e+00 -1 -1 -1
86 29 2 -8.4760000000000002e-01 1.6003973180279623e+01 4.2367495750136266e+00 6.6994683235491728e+00 0 -1 1
44 15 2 -8.4760000000000002e-01 7.9268553221714946e+00 3.0821628537228446e-01 4.7315909079026319e+00 2 1 -1
243 81 1 4.2380000000000001e-01 7.3688521086297145e+00 2.2681964431720893e+00 8.8335908370042759e-01 0 0 1
524 175 2 -8.4760000000000002e-01 7.8816378276564114e+00 3.5419474781616382e+00 7.4236495436091117e+00 0 -1 -2
523 175 1 4.2380000000000001e-01 8.1411042072888762e+00 4.5001214082128866e+00 7.5443969293840851e+00 0 -1 -2
45 15 1 4.2380000000000001e-01 8.4037674985172952e+00 1.1870794066367232e+00 4.7440677754903744e+00 2 1 -1
706 236 1 4.2380000000000001e-01 8.1287328740489730e+00 3.1429461578573208e+00 5.5458149347119754e+00 -1 2 1
426 142 1 4.2380000000000001e-01 1.2290951357333661e+01 9.2475681574307593e+00 3.1219892071040816e+00 0 1 0
232 78 1 4.2380000000000001e-01 8.6734551876888109e+00 2.1367805425680384e+00 7.9088763736610339e+00 -1 1 -1
707 236 2 -8.4760000000000002e-01 8.4708787713859550e+00 2.8551225248295147e+00 4.6513346999835106e+00 -1 2 1
708 236 1 4.2380000000000001e-01 9.3552385544291603e+00 3.2883796767055089e+00 4.4775639434636103e+00 -1 2 1
601 201 1 4.2380000000000001e-01 1.1133733880225149e+01 1.9802911888682215e+00 3.5850277217755666e+00 1 1 2
394 132 1 4.2380000000000001e-01 1.2943904911905042e+01 4.8283093500390297e+00 4.6563787814088071e+00 0 0 -1
233 78 2 -8.4760000000000002e-01 9.1979850944231369e+00 1.3379252493185023e+00 8.2033226943286639e+00 -1 1 -1
156 52 1 4.2380000000000001e-01 8.1615631070407666e+00 5.1267569805111117e+00 1.3504857282156066e+00 1 2 1
408 136 1 4.2380000000000001e-01 1.1082628483369160e+01 4.9284677329257951e+00 6.1432378053479688e+00 1 0 -1
646 216 1 4.2380000000000001e-01 1.0969729294576151e+01 1.8496373411001530e+00 8.0887361895743464e+00 0 1 0
648 216 1 4.2380000000000001e-01 1.2229162960574460e+01 2.7163617741376584e+00 8.6625330905525235e+00 0 1 0
781 261 1 4.2380000000000001e-01 1.1331131745064399e+01 2.8218730664296201e+00 1.6643562894961870e+00 2 2 -1
406 136 1 4.2380000000000001e-01 1.1707143795905235e+01 3.4271765824002611e+00 6.2940091775138898e+00 1 0 -1
34 12 1 4.2380000000000001e-01 9.0875990352038976e+00 7.9925351175604948e+00 3.6755654735750336e+00 0 1 -1
350 117 2 -8.4760000000000002e-01 1.2173483381039306e+01 7.5419411639210150e+00 2.9778309657196367e+00 0 0 0
349 117 1 4.2380000000000001e-01 1.2533396716523344e+01 7.3384196663544499e+00 2.0673138503661201e+00 0 0 0
351 117 1 4.2380000000000001e-01 1.2714342191835282e+01 7.0580940167114523e+00 3.6658452899795186e+00 0 0 0
826 276 1 4.2380000000000001e-01 7.8088219037282514e+00 3.0897954778139027e+00 3.1179618676575136e+00 -1 1 1
35 12 2 -8.4760000000000002e-01 9.6811891593305113e+00 7.1890983909945350e+00 3.7218277964161817e+00 0 1 -1
407 136 2 -8.4760000000000002e-01 1.1483096600176363e+01 4.1572515145021756e+00 5.6484137416108933e+00 1 0 -1
379 127 1 4.2380000000000001e-01 1.2499553516041891e+01 7.3416955659504337e+00 5.9938402927649852e+00 0 1 1
234 78 1 4.2380000000000001e-01 9.1228229741808846e+00 1.2369900741566724e+00 9.1953724714595637e+00 -1 1 -1
647 216 2 -8.4760000000000002e-01 1.1817695520458976e+01 2.3189294965240874e+00 7.8423236899140312e+00 0 1 0
824 275 2 -8.4760000000000002e-01 9.7694745962716656e+00 6.1710164092904352e+00 6.2814753015828080e+00 0 1 -1
154 52 1 4.2380000000000001e-01 9.1628538034342775e+00 6.2137388547704537e+00 2.0451181161804199e+00 1 2 1
602 201 2 -8.4760000000000002e-01 1.1239628278088924e+01 2.9506670766309311e+00 3.3678710485035124e+00 1 1 2
155 52 2 -8.4760000000000002e-01 8.7878055277021154e+00 5.8869778483620667e+00 1.1776120958337277e+00 1 2 1
134 45 2 -8.4760000000000002e-01 8.0541240216815826e+00 9.9591904191806861e+00 2.9622444666576344e+00 1 3 1
381 127 1 4.2380000000000001e-01 1.0921669257333200e+01 7.6145029025033679e+00 6.3139714952015202e+00 0 1 1
380 127 2 -8.4760000000000002e-01 1.1832656409944448e+01 8.0261458811159017e+00 6.2884183182651467e+00 0 1 1
825 275 1 4.2380000000000001e-01 8.9352736385865583e+00 6.3471342941335367e+00 6.8040574637587170e+00 0 1 -1
823 275 1 4.2380000000000001e-01 9.6292021015063245e+00 6.4407863968869039e+00 5.3288215691282206e+00 0 1 -1
782 261 2 -8.4760000000000002e-01 1.1451764235784255e+01 2.3655885180526481e+00 7.8273717156856037e-01 2 2 -1
641 214 2 -8.4760000000000002e-01 7.2053915261536128e+00 8.2404286909223927e+00 8.2778111772770402e-01 -1 0 0
603 201 1 4.2380000000000001e-01 1.1319333258756343e+01 3.4751564714860290e+00 4.2155490663228967e+00 1 1 2
36 12 1 4.2380000000000001e-01 1.0620444468572648e+01 7.4557295883540133e+00 3.5057090273966773e+00 0 1 -1
643 215 1 4.2380000000000001e-01 1.2779126850390705e+01 9.1461164478005053e+00 7.4005402681216736e+00 -2 1 -1
333 111 1 4.2380000000000001e-01 1.3220339584217006e+01 2.6668680466163623e+00 4.4425996040732241e-01 1 2 -1
645 215 1 4.2380000000000001e-01 1.3100735277025178e+01 9.4279267856444999e+00 8.9765409458763816e+00 -2 1 -1
642 214 1 4.2380000000000001e-01 7.5674444906457765e+00 7.3690937148634452e+00 1.1589820233875745e+00 -1 0 0
730 244 1 4.2380000000000001e-01 7.1434960408416668e+00 9.3262295292054844e+00 9.9069964584147652e+00 0 1 -1
629 210 2 -8.4760000000000002e-01 1.7660079235193091e+01 3.9680677017056349e+00 3.0949924815209262e-01 0 -1 1
612 204 1 4.2380000000000001e-01 1.5884470837691351e+01 1.2647450239778095e+00 5.0929768629329617e+00 -2 -1 2
37 13 1 4.2380000000000001e-01 1.7873680872951713e+01 2.3316815603590890e-01 5.7028050541788247e+00 -2 1 0
778 260 1 4.2380000000000001e-01 1.3300430525157705e+00 9.3242297928722149e+00 5.9049443405352315e+00 0 0 1
555 185 1 4.2380000000000001e-01 1.8662323548213550e+01 1.0076688873304473e+01 6.7767790551580305e+00 0 0 2
621 207 1 4.2380000000000001e-01 1.3625519272298272e+01 4.2022118069570871e+00 9.7416025212243031e+00 -2 -3 1
46 16 1 4.2380000000000001e-01 1.7058197840433137e-01 1.4461199343572015e+00 9.4482251121489327e+00 0 1 1
87 29 1 4.2380000000000001e-01 1.6627157709648142e+01 3.5072293939516759e+00 6.9813217682766604e+00 0 -1 1
818 273 2 -8.4760000000000002e-01 1.4588624425061113e+01 6.5619271959592567e+00 6.9885874954939871e+00 -1 2 -1
799 267 1 4.2380000000000001e-01 1.7620859757198456e+01 5.4105643748235357e+00 9.6682172275255152e+00 1 0 1
831 277 1 4.2380000000000001e-01 3.1615134854267151e+00 1.0037751602391166e+01 1.5442714198285581e+00 0 1 -2
439 147 1 4.2380000000000001e-01 1.4031452387064997e+01 9.9281705141167507e+00 1.3188618599466178e+00 -1 0 0
224 75 2 -8.4760000000000002e-01 1.3162914498546462e+01 6.6740417799082694e+00 4.2935749665993500e-01 1 0 -1
130 44 1 4.2380000000000001e-01 1.6761270590269099e+01 6.4170986989485170e+00 4.1108051168878301e+00 0 1 1
66 22 1 4.2380000000000001e-01 1.4706844277536264e+01 2.9682535290793739e+00 6.0668093486159238e+00 0 1 1
396 132 1 4.2380000000000001e-01 1.3971844140543890e+01 5.4813181608011012e+00 3.5684693476337186e+00 0 0 -1
395 132 2 -8.4760000000000002e-01 1.3502761820214715e+01 5.6286428032788640e+00 4.4392490258519759e+00 0 0 -1
170 57 2 -8.4760000000000002e-01 1.9343312830341173e+01 8.4620619905631429e+00 3.3645935173079700e+00 -2 -1 0
777 259 1 4.2380000000000001e-01 1.9219285936182846e+01 4.8048107313388098e+00 3.1795373282347733e-01 -1 1 1
819 273 1 4.2380000000000001e-01 1.5141958820438406e+01 5.7377179454762706e+00 7.1090043122419546e+00 -1 2 -1
722 241 2 -8.4760000000000002e-01 1.5927328544384855e+01 8.7187018322541547e+00 6.0919664916883454e+00 1 0 -2
338 113 2 -8.4760000000000002e-01 1.8166998194298817e+01 7.5301819653945916e+00 6.7677307838901717e+00 1 -2 0
637 213 1 4.2380000000000001e-01 1.3811698037259337e+01 6.3456640338780588e+00 8.6845913278439397e+00 -1 0 -1
538 180 1 4.2380000000000001e-01 1.6889622048281385e+01 1.5838352307459398e+00 8.7656503912617119e+00 -1 2 0
451 151 1 4.2380000000000001e-01 2.0242096992036018e+01 8.2164878015451936e+00 9.6650131751576502e+00 0 1 -2
798 266 1 4.2380000000000001e-01 1.7881955653735169e+01 2.9826852731300511e+00 2.9416429707468654e+00 1 0 0
644 215 2 -8.4760000000000002e-01 1.3112089232547298e+01 9.8223553514067454e+00 8.0576843212159108e+00 -2 1 -1
23 8 2 -8.4760000000000002e-01 1.6284821724219238e+01 7.5035386882331938e+00 2.5091086234203970e+00 -1 -1 2
360 120 1 4.2380000000000001e-01 1.9397087254814021e+01 3.2055324618043937e+00 4.8872427515273431e+00 -1 2 1
171 57 1 4.2380000000000001e-01 1.9573579778627440e+01 9.2663364727594377e+00 2.8167616907700141e+00 -2 -1 0
832 278 1 4.2380000000000001e-01 1.8155690424283591e+01 9.1276613264255833e+00 9.5462189186644757e+00 -1 2 0
797 266 2 -8.4760000000000002e-01 1.8323308856917684e+01 3.8013811880233375e+00 3.3089926317133127e+00 1 0 0
720 240 1 4.2380000000000001e-01 1.5572867578663667e+01 5.3914280306954758e+00 1.9979691710580534e+00 0 0 2
796 266 1 4.2380000000000001e-01 1.8863409800093169e+01 4.2397087941482212e+00 2.5905495456747167e+00 1 0 0
332 111 2 -8.4760000000000002e-01 1.4162105106711618e+01 2.9766843727022563e+00 3.1352524575108009e-01 1 2 -1
64 22 1 4.2380000000000001e-01 1.3434483379827912e+01 2.0457006492666969e+00 6.5102290035688410e+00 0 1 1
817 273 1 4.2380000000000001e-01 1.4212907192101088e+01 6.5787188745617096e+00 6.0620052638764399e+00 -1 2 -1
65 22 2 -8.4760000000000002e-01 1.4178067939859094e+01 2.1478011269773871e+00 5.8494281153501406e+00 0 1 1
723 241 1 4.2380000000000001e-01 1.5524614346586434e+01 7.8604144267326808e+00 6.4100313452582611e+00 1 0 -2
22 8 1 4.2380000000000001e-01 1.5689072393049599e+01 8.3016739359754474e+00 2.4193147960949766e+00 -1 -1 2
358 120 1 4.2380000000000001e-01 1.9323457402121438e+01 1.9045826232309844e+00 5.8714859457520419e+00 -1 2 1
833 278 2 -8.4760000000000002e-01 1.7328294287634808e+01 8.9022502319918662e+00 9.0318200769263530e+00 -1 2 0
834 278 1 4.2380000000000001e-01 1.7575732766491733e+01 8.3850933580217468e+00 8.2124763848376539e+00 -1 2 0
445 149 1 4.2380000000000001e-01 1.3911596984065369e+01 9.2874545488601612e-01 2.5987423971437393e+00 -1 2 0
132 44 1 4.2380000000000001e-01 1.7548458584137915e+01 4.9864421649287998e+00 4.1243497143902612e+00 0 1 1
131 44 2 -8.4760000000000002e-01 1.7164624096457693e+01 5.7126047461033052e+00 4.6947522301691444e+00 0 1 1
38 13 2 -8.4760000000000002e-01 1.8806815170296311e+01 2.4787469317864846e-01 6.0620321970048003e+00 -2 1 0
446 149 2 -8.4760000000000002e-01 1.4507820834590396e+01 1.5073456419074769e+00 3.1552844337745838e+00 -1 2 0
540 180 1 4.2380000000000001e-01 1.8443559960678691e+01 1.7319743416697082e+00 8.2861081567493482e+00 -1 2 0
85 29 1 4.2380000000000001e-01 1.6459027257510424e+01 4.8236252673301037e+00 6.0297648527050098e+00 0 -1 1
339 113 1 4.2380000000000001e-01 1.9024614870079702e+01 7.3905239573070096e+00 7.2626947315764880e+00 1 -2 0
721 241 1 4.2380000000000001e-01 1.6864608475175501e+01 8.7934419576374623e+00 6.4324380847164360e+00 1 0 -2
447 149 1 4.2380000000000001e-01 1.3986833943983013e+01 1.8830607694397001e+00 3.9217119257155701e+00 -1 2 0
539 180 2 -8.4760000000000002e-01 1.7493397684708004e+01 1.9363248064917011e+00 8.0506631360747303e+00 -1 2 0
331 111 1 4.2380000000000001e-01 1.4420856600236194e+01 3.5832155291095793e+00 1.0653015734478080e+00 1 2 -1
47 16 2 -8.4760000000000002e-01 2.0069807848115275e+01 1.8318007687162847e+00 8.6589325715362016e+00 -1 1 1
337 113 1 4.2380000000000001e-01 1.8086962841780043e+01 6.8483500713458900e+00 6.0406134484122527e+00 1 -2 0
359 120 2 -8.4760000000000002e-01 1.9780894473895305e+01 2.7782640917818577e+00 5.7058597354682838e+00 -1 2 1
719 240 2 -8.4760000000000002e-01 1.4622162104491915e+01 5.0813697212467792e+00 2.0027605581218806e+00 0 0 2
776 259 2 -8.4760000000000002e-01 2.0061171667196433e+01 5.1660260430755400e+00 7.1889420063604692e-01 -1 1 1
611 204 2 -8.4760000000000002e-01 1.6339882532015839e+01 3.8853395298865534e-01 5.2506295372445084e+00 -2 -1 2
552 184 1 4.2380000000000001e-01 1.5791989507567168e+01 8.8234720745698016e+00 1.0129079198313670e+01 -2 -1 0
587 196 2 -8.4760000000000002e-01 1.5961157739525408e+01 9.6079808472206962e-01 9.9855464632034909e+00 2 0 0
282 94 1 4.2380000000000001e-01 7.0053388042173248e+00 1.4408675925762759e+00 9.8107186680638705e+00 -2 2 4
242 81 2 -8.4760000000000002e-01 7.0984023242070817e+00 1.6088452763332792e+00 1.8185142589096495e-01 0 0 1
449 150 2 -8.4760000000000002e-01 2.7203574732241580e+00 2.5359516505707234e+00 4.3485669499868762e-01 0 -1 -1
472 158 1 4.2380000000000001e-01 1.5292945105351148e+01 9.3497095214239323e-02 7.9507974835262365e+00 0 0 -1
484 162 1 4.2380000000000001e-01 8.8807492666625976e+00 1.0104015026620964e+01 8.5905011395457862e+00 0 1 0
448 150 1 4.2380000000000001e-01 3.3569002105588477e+00 1.8365255376516036e+00 1.0986980464754126e-01 0 -1 -1
225 75 1 4.2380000000000001e-01 1.2243881901567063e+01 6.6219673842479434e+00 3.8630777771324176e-02 1 0 -1
775 259 1 4.2380000000000001e-01 4.4560033444076580e-01 5.0134404599921627e+00 8.8858598603955841e-02 0 1 1
418 140 1 4.2380000000000001e-01 2.0691379785345294e+00 4.6763357839529798e+00 1.8518028786385159e+01 0 0 0
733 245 1 4.2380000000000001e-01 3.3311547924567422e+00 4.1361171801282763e+00 1.5817718660344759e+01 0 2 0
734 245 2 -8.4760000000000002e-01 3.6329036324952315e+00 4.6581352767487001e+00 1.5019943781479194e+01 0 2 0
735 245 1 4.2380000000000001e-01 3.5559566210070872e+00 4.0895053370939571e+00 1.4200957087228526e+01 0 2 0
547 183 1 4.2380000000000001e-01 2.7726943025701929e+00 6.6161409081335210e+00 1.5860299122613039e+01 1 1 0
548 183 2 -8.4760000000000002e-01 2.7032209521432562e+00 7.4603707696431032e+00 1.6391759262094642e+01 1 1 0
549 183 1 4.2380000000000001e-01 3.6169292008040004e+00 7.7526262186678894e+00 1.6674114306891909e+01 1 1 0
664 222 1 4.2380000000000001e-01 5.2901415233843601e+00 5.4577284752947932e+00 1.5060011256455708e+01 1 -1 -1
327 109 1 4.2380000000000001e-01 6.0095579454563159e+00 9.0634897910929038e+00 1.3937384164964886e+01 1 -1 0
711 237 1 4.2380000000000001e-01 1.5459206735657072e+00 8.7421611808392896e+00 1.5884936767160251e+01 1 1 1
325 109 1 4.2380000000000001e-01 5.9701158182130500e+00 7.4698211294869683e+00 1.4291350041246025e+01 1 -1 0
326 109 2 -8.4760000000000002e-01 5.6950874361218853e+00 8.1659757088176850e+00 1.3628228807307012e+01 1 -1 0
710 237 2 -8.4760000000000002e-01 1.1084711156177887e+00 9.6307373294129768e+00 1.5746841314391286e+01 1 1 1
672 224 1 4.2380000000000001e-01 5.9599317992607856e+00 6.9271578443109343e+00 1.2349946723568983e+01 1 0 1
666 222 1 4.2380000000000001e-01 6.8601074992497271e+00 5.5155307450638507e+00 1.5505535959046595e+01 1 -1 -1
665 222 2 -8.4760000000000002e-01 6.0783900809406788e+00 6.0576006776458753e+00 1.5197188484500751e+01 1 -1 -1
82 28 1 4.2380000000000001e-01 5.9037262305942866e+00 6.8141533848018572e+00 1.8212101116875864e+01 2 1 1
726 242 1 4.2380000000000001e-01 6.5280223064103433e+00 1.2973827226275485e+00 1.2913284437203666e+01 -1 2 -1
84 28 1 4.2380000000000001e-01 5.9712681285992151e+00 7.1395145012689980e+00 1.6613287463283807e+01 2 1 1
83 28 2 -8.4760000000000002e-01 5.8561860303597015e+00 7.5376201588218885e+00 1.7523380378138693e+01 2 1 1
815 272 2 -8.4760000000000002e-01 3.6973742853996532e+00 2.9756672556573016e+00 1.3056220061558328e+01 0 1 0
382 128 1 4.2380000000000001e-01 6.6282949361395325e+00 9.5454011618599974e+00 1.6596239071233018e+01 1 -1 -1
814 272 1 4.2380000000000001e-01 3.0062799956055950e+00 2.2797549399727011e+00 1.2861041312718266e+01 0 1 0
725 242 2 -8.4760000000000002e-01 6.0950704826961353e+00 1.8685825802978180e+00 1.3610624721779608e+01 -1 2 -1
697 233 1 4.2380000000000001e-01 1.5262342517094243e+00 6.7976805387033359e+00 1.9165659238500506e+01 1 -1 -1
816 272 1 4.2380000000000001e-01 4.5668127179022804e+00 2.5308904016732119e+00 1.3271279196907367e+01 0 1 0
456 152 1 4.2380000000000001e-01 2.9411277355531649e+00 1.5413454762830425e+00 1.5883756710594103e+01 -1 0 -1
699 233 1 4.2380000000000001e-01 1.5780773784181914e+00 7.5799504402672255e+00 1.7733181325499800e+01 1 -1 -1
492 164 1 4.2380000000000001e-01 1.1010864685470807e+00 3.0893890921329454e+00 1.6850123842114872e+01 1 -1 -1
320 107 2 -8.4760000000000002e-01 4.6275148981688323e+00 5.8944901128635130e-01 2.0068961522153884e+01 1 1 0
199 67 1 4.2380000000000001e-01 6.0746340552337585e+00 4.3020387342718172e+00 1.9228925842025909e+01 0 0 1
634 212 1 4.2380000000000001e-01 1.4146475194780408e+00 4.9463244220923425e-01 1.3295098163343511e+01 1 0 -1
635 212 2 -8.4760000000000002e-01 1.5938245602682133e+00 9.0389159997098001e-01 1.4189750351075963e+01 1 0 -1
724 242 1 4.2380000000000001e-01 6.3450932551208679e+00 1.5328839265682308e+00 1.4518806990326105e+01 -1 2 -1
491 164 2 -8.4760000000000002e-01 9.7014115557960601e-01 4.0805542001464818e+00 1.6829027121466137e+01 1 -1 -1
454 152 1 4.2380000000000001e-01 3.5884911711239855e+00 7.6366907935000816e-01 1.7165461316743315e+01 -1 0 -1
455 152 2 -8.4760000000000002e-01 3.4985390056418484e+00 1.6478863788199698e+00 1.6707128960320180e+01 -1 0 -1
698 233 2 -8.4760000000000002e-01 1.2806063592136236e+00 7.6400651690127566e+00 1.8686018299068845e+01 1 -1 -1
200 67 2 -8.4760000000000002e-01 6.8672162829312358e+00 3.8518075481100511e+00 1.8817700910981465e+01 0 0 1
383 128 2 -8.4760000000000002e-01 6.2488840014550497e+00 1.0172437028792956e+01 1.5915891094989879e+01 1 -1 -1
420 140 1 4.2380000000000001e-01 2.3709836041756911e+00 4.0468548093666277e+00 1.9994263670820676e+01 0 0 0
261 87 1 4.2380000000000001e-01 5.3157384511441848e+00 9.0624802052192095e+00 1.8544263440649356e+01 1 0 1
461 154 2 -8.4760000000000002e-01 4.8051312933448500e+00 5.4684409024983136e+00 1.9703509846815059e+01 0 1 0
205 69 1 4.2380000000000001e-01 4.6998886074985896e-01 2.3306738936699904e+00 1.1539653967634624e+01 1 -1 0
507 169 1 4.2380000000000001e-01 5.4597385418377907e-02 4.1937872499045667e+00 1.4861145403376842e+01 1 1 -1
490 164 1 4.2380000000000001e-01 1.2945054310937565e-01 4.3161507188311203e+00 1.7316606468743270e+01 1 -1 -1
506 169 2 -8.4760000000000002e-01 2.3562766415349964e-01 4.4540382233721942e+00 1.3912726710038527e+01 1 1 -1
505 169 1 4.2380000000000001e-01 1.1565780933778158e+00 4.8372902864010170e+00 1.3842239653680656e+01 1 1 -1
460 154 1 4.2380000000000001e-01 3.8059237905417271e+00 5.4293638720107680e+00 1.9711116982738563e+01 0 1 0
653 218 2 -8.4760000000000002e-01 1.2342376553718233e+00 5.9677514315535962e-01 1.1327983704129085e+01 1 -1 -1
319 107 1 4.2380000000000001e-01 5.5305639451361577e+00 9.7182612148000602e-01 2.0264640372395696e+01 1 1 0
419 140 2 -8.4760000000000002e-01 1.9980394079612067e+00 4.8339622320727189e+00 1.9502964782247176e+01 0 0 0
657 219 1 4.2380000000000001e-01 1.4303338731719673e+00 5.3632957546820048e-01 1.9822001561287866e+01 0 0 0
607 203 1 4.2380000000000001e-01 1.9031557488901907e+01 9.3333576135346625e+00 1.3543470176759937e+01 -1 1 1
207 69 1 4.2380000000000001e-01 2.0098172947563608e+01 3.4844872337151211e+00 1.2419777308835748e+01 0 -1 0
206 69 2 -8.4760000000000002e-01 2.0077478219551161e+01 2.9688742127715670e+00 1.1563204875523125e+01 0 -1 0
499 167 1 4.2380000000000001e-01 2.0327684033681326e+01 8.6601759515021985e+00 1.8415347412172579e+01 -4 0 -1
226 76 1 4.2380000000000001e-01 1.0708528455471258e+01 9.8212433037695241e+00 1.4905479066870086e+01 -1 -2 1
636 212 1 4.2380000000000001e-01 7.5330766976194607e-01 1.3150573973676067e+00 1.4542559185118630e+01 1 0 -1
652 218 1 4.2380000000000001e-01 2.0577072390318638e+00 1.1985996748615958e-01 1.1020656811634435e+01 1 -1 -1
586 196 1 4.2380000000000001e-01 1.5052200087473427e+01 8.7100891555496174e-01 1.0392652202609320e+01 2 0 0